;;
;; Generated by CHARMM-GUI (http://www.charmm-gui.org) v1.7
;;
;; psf2itp_mol.py
;;
;; Correspondance:
;; jul316@lehigh.edu or wonpil@lehigh.edu
;;
;; GROMACS topology file for HEXD
;;


[ moleculetype ]
; name	nrexcl
HEXD	     3

[ atoms ]
; nr	type	resnr	residu	atom	cgnr	charge	mass
     1       HGA2      1     HEXD    H11      1      0.090     1.0080   ; qtot  0.090
     2       HGA2      1     HEXD    H12      2      0.090     1.0080   ; qtot  0.180
     3       HGP1      1     HEXD    HO1      3      0.420     1.0080   ; qtot  0.600
     4      CG321      1     HEXD     C1      4      0.050    12.0110   ; qtot  0.650
     5      OG311      1     HEXD     O1      5     -0.650    15.9994   ; qtot  0.000
     6       HGA2      1     HEXD    H21      6      0.090     1.0080   ; qtot  0.090
     7       HGA2      1     HEXD    H22      7      0.090     1.0080   ; qtot  0.180
     8      CG321      1     HEXD     C2      8     -0.180    12.0110   ; qtot  0.000
     9       HGA2      1     HEXD    H31      9      0.090     1.0080   ; qtot  0.090
    10       HGA2      1     HEXD    H32     10      0.090     1.0080   ; qtot  0.180
    11      CG321      1     HEXD     C3     11     -0.180    12.0110   ; qtot  0.000
    12       HGA2      1     HEXD    H41     12      0.090     1.0080   ; qtot  0.090
    13       HGA2      1     HEXD    H42     13      0.090     1.0080   ; qtot  0.180
    14      CG321      1     HEXD     C4     14     -0.180    12.0110   ; qtot  0.000
    15       HGA2      1     HEXD    H51     15      0.090     1.0080   ; qtot  0.090
    16       HGA2      1     HEXD    H52     16      0.090     1.0080   ; qtot  0.180
    17      CG321      1     HEXD     C5     17     -0.180    12.0110   ; qtot  0.000
    18       HGA2      1     HEXD    H61     18      0.090     1.0080   ; qtot  0.090
    19       HGA2      1     HEXD    H62     19      0.090     1.0080   ; qtot  0.180
    20       HGP1      1     HEXD    HO6     20      0.420     1.0080   ; qtot  0.600
    21      CG321      1     HEXD     C6     21      0.050    12.0110   ; qtot  0.650
    22      OG311      1     HEXD     O6     22     -0.650    15.9994   ; qtot  0.000

[ bonds ]
; ai	aj	funct	b0	Kb
    1     4     1
    2     4     1
    3     5     1
    4     5     1
    4     8     1
    6     8     1
    7     8     1
    8    11     1
    9    11     1
   10    11     1
   11    14     1
   12    14     1
   13    14     1
   14    17     1
   15    17     1
   16    17     1
   17    21     1
   18    21     1
   19    21     1
   20    22     1
   21    22     1

[ pairs ]
; ai	aj	funct	c6	c12
    1     3     1 
    1     6     1 
    1     7     1 
    1    11     1 
    2     3     1 
    2     6     1 
    2     7     1 
    2    11     1 
    3     8     1 
    4     9     1 
    4    10     1 
    4    14     1 
    5     6     1 
    5     7     1 
    5    11     1 
    6     9     1 
    6    10     1 
    6    14     1 
    7     9     1 
    7    10     1 
    7    14     1 
    8    12     1 
    8    13     1 
    8    17     1 
    9    12     1 
    9    13     1 
    9    17     1 
   10    12     1 
   10    13     1 
   10    17     1 
   11    15     1 
   11    16     1 
   11    21     1 
   12    15     1 
   12    16     1 
   12    21     1 
   13    15     1 
   13    16     1 
   13    21     1 
   14    18     1 
   14    19     1 
   14    22     1 
   15    18     1 
   15    19     1 
   15    22     1 
   16    18     1 
   16    19     1 
   16    22     1 
   17    20     1 
   18    20     1 
   19    20     1 

[ angles ] 
; ai	aj	ak	funct	th0	cth	S0	Kub
    1     4     2     5
    1     4     5     5
    1     4     8     5
    2     4     5     5
    2     4     8     5
    5     4     8     5
    3     5     4     5
    4     8     6     5
    4     8     7     5
    4     8    11     5
    6     8     7     5
    6     8    11     5
    7     8    11     5
    8    11     9     5
    8    11    10     5
    8    11    14     5
    9    11    10     5
    9    11    14     5
   10    11    14     5
   11    14    12     5
   11    14    13     5
   11    14    17     5
   12    14    13     5
   12    14    17     5
   13    14    17     5
   14    17    15     5
   14    17    16     5
   14    17    21     5
   15    17    16     5
   15    17    21     5
   16    17    21     5
   17    21    18     5
   17    21    19     5
   17    21    22     5
   18    21    19     5
   18    21    22     5
   19    21    22     5
   20    22    21     5

[ dihedrals ]
; ai	aj	ak	al	funct	phi0	cp	mult
    1     4     5     3     9
    2     4     5     3     9
    1     4     8     6     9
    1     4     8     7     9
    1     4     8    11     9
    2     4     8     6     9
    2     4     8     7     9
    2     4     8    11     9
    5     4     8     6     9
    5     4     8     7     9
    5     4     8    11     9
    3     5     4     8     9
    4     8    11     9     9
    4     8    11    10     9
    4     8    11    14     9
    6     8    11     9     9
    6     8    11    10     9
    6     8    11    14     9
    7     8    11     9     9
    7     8    11    10     9
    7     8    11    14     9
    8    11    14    12     9
    8    11    14    13     9
    8    11    14    17     9
    9    11    14    12     9
    9    11    14    13     9
    9    11    14    17     9
   10    11    14    12     9
   10    11    14    13     9
   10    11    14    17     9
   11    14    17    15     9
   11    14    17    16     9
   11    14    17    21     9
   12    14    17    15     9
   12    14    17    16     9
   12    14    17    21     9
   13    14    17    15     9
   13    14    17    16     9
   13    14    17    21     9
   14    17    21    18     9
   14    17    21    19     9
   14    17    21    22     9
   15    17    21    18     9
   15    17    21    19     9
   15    17    21    22     9
   16    17    21    18     9
   16    17    21    19     9
   16    17    21    22     9
   17    21    22    20     9
   18    21    22    20     9
   19    21    22    20     9
